# vtk DataFile Version 2.0
Example data
ASCII
DATASET UNSTRUCTURED_GRID
POINTS 3 double
0 0 0   1 0 0   2 0 0

CELLS 3 6 
1 0
1 1     
1 2

CELL_TYPES 3
1
1
1

POINT_DATA 3
SCALARS Velocity double 3 
LOOKUP_TABLE default
1.0 1.0 1.0     1.0 1.0 1.0    1.0 1.0 1.0
